[Molden Format]
[Title]
Essential dynamics
[Atoms] AU
 C     1   6  0.12908231542        0.0836071271374      0.0362776295685      
 S     2   16 3.3630865816         -0.0391886801549     -0.0165670729293     
 H     3   1  -0.813529528197      1.87485281915        0.0661978962052      
 H     4   1  -0.9464113268        -1.62648160226       0.0269299441301      
[FREQ]
 7.90837474594e-15
 4.7037810694e-12
 1.10253421774e-10
 0.000269756343076
 0.000271634211344
 0.000624647888889
 0.000781514083274
 0.00180049034817
 0.00240071421515
 0.0101863918002
 0.0206445270442
 0.0269485234001
[FR-COORD]
 C   0.12908231542        0.0836071271374      0.0362776295685      
 S   3.3630865816         -0.0391886801549     -0.0165670729293     
 H   -0.813529528197      1.87485281915        0.0661978962052      
 H   -0.9464113268        -1.62648160226       0.0269299441301      
[FR-NORM-COORD]
 vibration    1
    0.01881009     0.09199322     0.11375008
    0.01877224     0.09180907     0.11351823
    0.01882447     0.09206405     0.11383722
    0.01882466     0.09206402     0.11384063
 vibration    2
    0.12440258     0.05027926    -0.06124794
    0.12415328     0.05018783    -0.06111443
    0.12449227     0.05031613    -0.06132713
    0.12450363     0.05031897    -0.06127177
 vibration    3
    0.07697782    -0.10373501     0.07125606
    0.07682179    -0.10354576     0.07099746
    0.07704506    -0.10388314     0.07173341
    0.07698706    -0.10374371     0.07096272
 vibration    4
   -0.00657788    -0.05750187     0.00341685
   -0.00178415     0.00635266    -0.00140771
   -0.07620990     0.41323507     0.60325873
    0.20978707     0.07203629    -0.60077239
 vibration    5
   -0.00563487    -0.07859739     0.00693875
    0.00074451    -0.00309045    -0.00261571
   -0.26111274     0.54880054    -0.33127753
    0.30541230     0.48378241     0.33255126
 vibration    6
    0.09467468    -0.00980587    -0.01170648
   -0.00047203    -0.00068844     0.00458567
   -0.63603472    -0.25936541     0.10596179
   -0.47672743     0.39860358    -0.11248505
 vibration    7
   -0.05382977    -0.01101409    -0.03088260
   -0.00065554     0.00208482     0.01482308
    0.26006250    -0.55255611     0.03936589
    0.40140237     0.61791515    -0.14212085
 vibration    8
    0.02284961     0.01419058     0.18137654
   -0.01189296     0.00379820    -0.08563957
   -0.21289439    -0.21875229     0.28695265
    0.31708979    -0.06910178     0.26903197
 vibration    9
   -0.01052693    -0.11471034     0.08179198
    0.00476643     0.03125770    -0.03789050
    0.51760107     0.09616648     0.11622690
   -0.54403323     0.27889462     0.11129863
 vibration   10
    0.01297057     0.00438449     0.13818213
   -0.00479910    -0.00135006    -0.01310296
   -0.00083297    -0.00757019    -0.61248841
   -0.00138160    -0.00177877    -0.61717245
 vibration   11
    0.11622836     0.16154429     0.01389864
   -0.05181067    -0.07712930    -0.00839458
    0.30430552     0.23729476     0.08776029
   -0.04482775     0.28672258     0.01257533
 vibration   12
   -0.18776991     0.11104183     0.03828615
    0.08150277    -0.05020215    -0.01622013
   -0.13541051     0.11100789     0.07154745
   -0.21477966     0.16013477    -0.01335417
