[Molden Format]
[Title]
Essential dynamics
[Atoms] AU
 C     1   6  0.12908231542        0.0836071271374      0.0362776295685      
 S     2   16 3.3630865816         -0.0391886801549     -0.0165670729293     
 H     3   1  -0.813529528197      1.87485281915        0.0661978962052      
 H     4   1  -0.9464113268        -1.62648160226       0.0269299441301      
[FREQ]
 5.41674623644e-10
 6.46498050975e-09
 3.15049346193e-08
 0.00327429419769
 0.00352637307564
 0.00403609272036
 0.0125575200465
 0.0189830984319
 0.0347703560495
 0.068093030724
 0.171853289525
 0.258471994352
[FR-COORD]
 C   0.12908231542        0.0836071271374      0.0362776295685      
 S   3.3630865816         -0.0391886801549     -0.0165670729293     
 H   -0.813529528197      1.87485281915        0.0661978962052      
 H   -0.9464113268        -1.62648160226       0.0269299441301      
[FR-NORM-COORD]
 vibration    1
   -0.04151392     0.10794258     0.09152430
   -0.04143260     0.10774950     0.09134028
   -0.04154483     0.10799069     0.09156705
   -0.04152978     0.10803241     0.09162424
 vibration    2
   -0.06041701    -0.09978646     0.09032058
   -0.06026379    -0.09956774     0.09010164
   -0.06045843    -0.09993783     0.09010263
   -0.06038542    -0.09977263     0.09069654
 vibration    3
    0.12801933    -0.01203444     0.07225546
    0.12774181    -0.01204586     0.07215596
    0.12809248    -0.01178206     0.07219101
    0.12797931    -0.01234831     0.07240516
 vibration    4
   -0.03583207    -0.07804086     0.00228431
   -0.00102289    -0.00073850    -0.00014127
   -0.06953032     0.19044707    -0.01761364
    0.53039233     0.76248488    -0.00470587
 vibration    5
   -0.02533376     0.05073543    -0.00063382
   -0.00044081    -0.00041184     0.00056385
    0.30880191    -0.87947284    -0.03260475
    0.00907565     0.28858662     0.02272778
 vibration    6
    0.09437482    -0.01767493    -0.00357865
    0.00197933    -0.00051323    -0.00002507
   -0.65436017    -0.15323909    -0.01136416
   -0.53173103     0.38004578     0.05487355
 vibration    7
   -0.00220133    -0.10664769     0.00302757
   -0.00003299     0.02430527    -0.00004643
    0.60946216     0.22612065    -0.04003933
   -0.58232761     0.27261613     0.00540959
 vibration    8
    0.03579148     0.01896274    -0.00617071
   -0.01689939    -0.00811969     0.00248285
    0.04828208     0.05515511    -0.69340170
    0.06172168    -0.02165954     0.68577144
 vibration    9
   -0.01016824    -0.00248245    -0.13617146
    0.00261682     0.00022183     0.01215536
    0.03303692     0.01141208     0.61947476
    0.00503547     0.01110285     0.61629701
 vibration   10
    0.20927537    -0.06375433     0.02698012
   -0.09051300     0.02968917    -0.01397740
    0.14553771    -0.09671863     0.15578700
    0.23418134    -0.08663511    -0.03317808
 vibration   11
    0.00985964     0.11101766     0.17313056
   -0.00461376    -0.05164316    -0.08082736
    0.10282184     0.15494649     0.27288719
   -0.07339263     0.16192660     0.23003392
 vibration   12
   -0.07335882    -0.15620324     0.11042320
    0.03176178     0.07288138    -0.05134326
   -0.18797094    -0.22235919     0.06332843
    0.05539577    -0.22936094     0.25011848
