[Molden Format]
[Atoms] Angs
 C     1  6     0.132966     0.402954    -0.000022
 O     2  8    -1.131809    -0.094440     0.000005
 O     3  8     1.150593    -0.261982     0.000006
 H     4  1    -1.030586    -1.077276    -0.000003
 H     5  1     0.082517     1.510931     0.000044
[GTO]
  1 0
 s    6 1.00
  0.3047524880D+04  0.1834737132D-02
  0.4573695180D+03  0.1403732281D-01
  0.1039486850D+03  0.6884262227D-01
  0.2921015530D+02  0.2321844432D+00
  0.9286662960D+01  0.4679413484D+00
  0.3163926960D+01  0.3623119853D+00
 sp   3 1.00
  0.7868272350D+01 -0.1193324198D+00  0.6899906659D-01
  0.1881288540D+01 -0.1608541517D+00  0.3164239610D+00
  0.5442492580D+00  0.1143456438D+01  0.7443082909D+00
 sp   1 1.00
  0.1687144782D+00  0.1000000000D+01  0.1000000000D+01
 d    1 1.00
  0.8000000000D+00  0.1000000000D+01
  
  2 0
 s    6 1.00
  0.5484671660D+04  0.1831074430D-02
  0.8252349460D+03  0.1395017220D-01
  0.1880469580D+03  0.6844507810D-01
  0.5296450000D+02  0.2327143360D+00
  0.1689757040D+02  0.4701928980D+00
  0.5799635340D+01  0.3585208530D+00
 sp   3 1.00
  0.1553961625D+02 -0.1107775495D+00  0.7087426823D-01
  0.3599933586D+01 -0.1480262627D+00  0.3397528391D+00
  0.1013761750D+01  0.1130767015D+01  0.7271585773D+00
 sp   1 1.00
  0.2700058226D+00  0.1000000000D+01  0.1000000000D+01
 d    1 1.00
  0.8000000000D+00  0.1000000000D+01
  
  3 0
 s    6 1.00
  0.5484671660D+04  0.1831074430D-02
  0.8252349460D+03  0.1395017220D-01
  0.1880469580D+03  0.6844507810D-01
  0.5296450000D+02  0.2327143360D+00
  0.1689757040D+02  0.4701928980D+00
  0.5799635340D+01  0.3585208530D+00
 sp   3 1.00
  0.1553961625D+02 -0.1107775495D+00  0.7087426823D-01
  0.3599933586D+01 -0.1480262627D+00  0.3397528391D+00
  0.1013761750D+01  0.1130767015D+01  0.7271585773D+00
 sp   1 1.00
  0.2700058226D+00  0.1000000000D+01  0.1000000000D+01
 d    1 1.00
  0.8000000000D+00  0.1000000000D+01
  
  4 0
 s    3 1.00
  0.1873113696D+02  0.3349460434D-01
  0.2825394365D+01  0.2347269535D+00
  0.6401216923D+00  0.8137573261D+00
 s    1 1.00
  0.1612777588D+00  0.1000000000D+01
  
  5 0
 s    3 1.00
  0.1873113696D+02  0.3349460434D-01
  0.2825394365D+01  0.2347269535D+00
  0.6401216923D+00  0.8137573261D+00
 s    1 1.00
  0.1612777588D+00  0.1000000000D+01
 

[MO]
 Ene=   -18.8575
 Spin= Alpha
 Occup=   2.000000
   1   0.000020
   2   0.000370
   3  -0.000340
   4  -0.000140
   5   0.000000
   6  -0.001310
   7   0.001480
   8  -0.000150
   9   0.000000
  10   0.000180
  11   0.000020
  12  -0.000010
  13   0.000010
  14   0.000000
  15   0.000000
  16   0.992650
  17   0.026800
  18   0.000740
  19  -0.000580
  20   0.000000
  21   0.011260
  22   0.000270
  23   0.000390
  24   0.000000
  25  -0.008250
  26  -0.008180
  27  -0.008150
  28   0.000020
  29   0.000000
  30   0.000000
  31   0.000030
  32   0.000160
  33   0.000030
  34   0.000030
  35   0.000000
  36  -0.000860
  37   0.000120
  38  -0.000280
  39   0.000000
  40  -0.000030
  41   0.000070
  42   0.000100
  43   0.000030
  44   0.000000
  45   0.000000
  46   0.000430
  47  -0.001010
  48   0.000100
  49   0.000170
 Ene=   -18.8001
 Spin= Alpha
 Occup=   2.000000
   1   0.000030
   2   0.000580
   3  -0.000020
   4  -0.000010
   5   0.000000
   6  -0.002590
   7  -0.001610
   8   0.001500
   9   0.000000
  10  -0.000620
  11  -0.000280
  12  -0.000010
  13   0.000440
  14   0.000000
  15   0.000000
  16  -0.000020
  17  -0.000030
  18  -0.000020
  19   0.000060
  20   0.000000
  21   0.000240
  22   0.000220
  23  -0.000290
  24   0.000000
  25  -0.000070
  26   0.000020
  27  -0.000040
  28   0.000080
  29   0.000000
  30   0.000000
  31   0.992670
  32   0.026680
  33  -0.001010
  34   0.000610
  35   0.000000
  36   0.012250
  37  -0.000990
  38   0.000550
  39   0.000000
  40  -0.007840
  41  -0.008050
  42  -0.008150
  43  -0.000240
  44   0.000000
  45   0.000000
  46  -0.000050
  47  -0.000070
  48   0.000030
  49  -0.000440
 Ene=   -10.0486
 Spin= Alpha
 Occup=   2.000000
   1   0.992630
   2   0.050010
   3  -0.000110
   4  -0.001020
   5   0.000000
   6  -0.005810
   7   0.001120
   8  -0.002990
   9   0.000000
  10  -0.008370
  11  -0.009240
  12  -0.010060
  13  -0.000350
  14   0.000000
  15   0.000000
  16   0.000000
  17   0.000290
  18  -0.000180
  19  -0.000190
  20   0.000000
  21  -0.001080
  22  -0.001600
  23   0.000290
  24   0.000000
  25  -0.000720
  26   0.000070
  27   0.000410
  28  -0.000400
  29   0.000000
  30   0.000000
  31  -0.000080
  32   0.000360
  33   0.000150
  34  -0.000160
  35   0.000000
  36  -0.003440
  37   0.002270
  38  -0.000920
  39   0.000000
  40  -0.000290
  41   0.000180
  42   0.000430
  43   0.000400
  44   0.000000
  45   0.000000
  46   0.000250
  47   0.000310
  48  -0.000470
  49   0.003140
 Ene=    -1.0208
 Spin= Alpha
 Occup=   2.000000
   1  -0.114870
   2   0.221760
   3  -0.023360
   4  -0.091230
   5   0.000000
   6   0.057460
   7  -0.002200
   8   0.024280
   9   0.000000
  10   0.015550
  11  -0.005410
  12  -0.019330
  13   0.000940
  14   0.000000
  15   0.000000
  16  -0.166720
  17   0.369460
  18   0.107190
  19  -0.039440
  20   0.000000
  21   0.351650
  22   0.054810
  23  -0.024000
  24   0.000000
  25   0.008860
  26   0.010510
  27  -0.009420
  28   0.000010
  29   0.000000
  30   0.000000
  31  -0.096950
  32   0.208810
  33  -0.085800
  34   0.043310
  35   0.000000
  36   0.194610
  37  -0.036920
  38   0.010170
  39   0.000000
  40   0.005610
  41  -0.004560
  42  -0.004330
  43  -0.006050
  44   0.000000
  45   0.000000
  46   0.096790
  47  -0.002920
  48   0.027360
  49  -0.011680
 Ene=    -0.9383
 Spin= Alpha
 Occup=   2.000000
   1  -0.057530
   2   0.115790
   3   0.227760
   4  -0.065510
   5   0.000000
   6   0.037590
   7  -0.003390
   8   0.014380
   9   0.000000
  10  -0.002760
  11  -0.001070
  12  -0.009860
  13  -0.030220
  14   0.000000
  15   0.000000
  16   0.121760
  17  -0.275140
  18  -0.043320
  19   0.036120
  20   0.000000
  21  -0.265240
  22  -0.010570
  23   0.018770
  24   0.000000
  25   0.004850
  26  -0.011340
  27   0.004460
  28   0.000870
  29   0.000000
  30   0.000000
  31  -0.172370
  32   0.378120
  33  -0.115390
  34   0.082130
  35   0.000000
  36   0.344890
  37  -0.035760
  38   0.023500
  39   0.000000
  40   0.001460
  41  -0.002950
  42  -0.005150
  43  -0.008570
  44   0.000000
  45   0.000000
  46  -0.075780
  47   0.004490
  48   0.009220
  49  -0.011230
 Ene=    -0.6041
 Spin= Alpha
 Occup=   2.000000
   1  -0.127730
   2   0.277090
   3  -0.164920
   4   0.148820
   5   0.000010
   6   0.225350
   7  -0.038010
   8   0.056690
   9   0.000000
  10   0.000780
  11  -0.003200
  12  -0.010910
  13   0.002350
  14   0.000000
  15   0.000000
  16   0.032040
  17  -0.072880
  18   0.178150
  19   0.340870
  20   0.000000
  21  -0.111190
  22   0.079540
  23   0.164020
  24   0.000000
  25   0.016530
  26  -0.020420
  27   0.002190
  28   0.014500
  29   0.000000
  30   0.000000
  31   0.051440
  32  -0.116380
  33  -0.018250
  34   0.039750
  35   0.000000
  36  -0.137200
  37  -0.015600
  38   0.023200
  39   0.000000
  40   0.003400
  41   0.004070
  42   0.000480
  43  -0.004740
  44   0.000000
  45   0.000000
  46  -0.184420
  47  -0.070080
  48   0.155170
  49   0.050150
 Ene=    -0.4616
 Spin= Alpha
 Occup=   2.000000
   1  -0.036820
   2   0.077860
   3   0.228940
   4   0.344890
   5   0.000010
   6   0.100180
   7   0.051020
   8   0.134020
   9   0.000010
  10  -0.015370
  11   0.012860
  12   0.002420
  13  -0.005060
  14   0.000000
  15   0.000000
  16  -0.011360
  17   0.017110
  18  -0.285910
  19  -0.193610
  20   0.000020
  21   0.057260
  22  -0.150240
  23  -0.104260
  24   0.000010
  25  -0.019490
  26   0.019400
  27  -0.001580
  28   0.005990
  29   0.000000
  30   0.000000
  31   0.029570
  32  -0.065110
  33   0.038470
  34   0.203690
  35   0.000010
  36  -0.104510
  37   0.021880
  38   0.102710
  39   0.000000
  40  -0.008540
  41   0.016800
  42   0.000390
  43  -0.010480
  44   0.000000
  45   0.000000
  46   0.108810
  47   0.067940
  48   0.212100
  49   0.127120
 Ene=    -0.4317
 Spin= Alpha
 Occup=   2.000000
   1   0.077740
   2  -0.188150
   3  -0.099940
   4   0.162830
   5   0.000010
   6  -0.154340
   7  -0.039080
   8   0.056320
   9   0.000010
  10   0.021910
  11  -0.006690
  12   0.006560
  13  -0.006200
  14   0.000000
  15   0.000000
  16  -0.066120
  17   0.149090
  18  -0.227880
  19   0.262170
  20   0.000010
  21   0.245980
  22  -0.149120
  23   0.153600
  24   0.000010
  25  -0.017770
  26  -0.005620
  27   0.003520
  28   0.017740
  29   0.000000
  30   0.000000
  31  -0.098070
  32   0.203700
  33   0.330720
  34  -0.130220
  35   0.000020
  36   0.420410
  37   0.160730
  38  -0.051310
  39   0.000010
  40  -0.027360
  41  -0.008810
  42  -0.001450
  43   0.010860
  44   0.000000
  45   0.000000
  46  -0.114880
  47  -0.057960
  48  -0.000740
  49   0.012720
 Ene=    -0.3962
 Spin= Alpha
 Occup=   2.000000
   1   0.000000
   2  -0.000010
   3  -0.000010
   4  -0.000010
   5   0.369500
   6  -0.000010
   7   0.000000
   8  -0.000010
   9   0.194560
  10   0.000000
  11   0.000000
  12   0.000000
  13   0.000000
  14  -0.001930
  15  -0.014990
  16   0.000000
  17  -0.000010
  18   0.000030
  19  -0.000010
  20   0.377710
  21  -0.000010
  22   0.000020
  23  -0.000010
  24   0.247010
  25   0.000000
  26   0.000000
  27   0.000000
  28   0.000000
  29   0.023530
  30  -0.007390
  31   0.000000
  32   0.000000
  33  -0.000010
  34  -0.000010
  35   0.316770
  36  -0.000010
  37  -0.000010
  38  -0.000010
  39   0.178360
  40   0.000000
  41   0.000000
  42   0.000000
  43   0.000000
  44  -0.020430
  45   0.011130
  46   0.000000
  47   0.000000
  48   0.000000
  49   0.000000
 Ene=    -0.3559
 Spin= Alpha
 Occup=   2.000000
   1  -0.002040
   2  -0.007200
   3  -0.220060
   4   0.189560
   5  -0.000010
   6   0.048740
   7   0.008600
   8  -0.003190
   9   0.000000
  10  -0.013210
  11   0.023630
  12   0.002820
  13   0.016800
  14   0.000000
  15   0.000000
  16   0.064050
  17  -0.132970
  18   0.295730
  19  -0.266800
  20  -0.000030
  21  -0.288710
  22   0.190750
  23  -0.151540
  24  -0.000020
  25   0.012960
  26   0.017340
  27   0.000000
  28  -0.014810
  29   0.000000
  30   0.000000
  31  -0.042690
  32   0.084250
  33   0.303980
  34  -0.225760
  35   0.000010
  36   0.171380
  37   0.167750
  38  -0.133610
  39   0.000010
  40  -0.016860
  41  -0.004460
  42   0.000760
  43   0.012620
  44   0.000000
  45   0.000000
  46   0.147980
  47   0.116310
  48   0.140960
  49   0.150660
 Ene=    -0.2870
 Spin= Alpha
 Occup=   2.000000
   1   0.000000
   2   0.000000
   3   0.000000
   4   0.000010
   5  -0.113960
   6   0.000000
   7   0.000000
   8   0.000000
   9  -0.056970
  10   0.000000
  11   0.000000
  12   0.000000
  13   0.000000
  14  -0.038510
  15   0.005660
  16   0.000000
  17   0.000000
  18   0.000020
  19  -0.000010
  20   0.487180
  21   0.000000
  22   0.000010
  23   0.000000
  24   0.367820
  25   0.000000
  26   0.000000
  27   0.000000
  28   0.000000
  29   0.015650
  30  -0.012540
  31   0.000000
  32   0.000000
  33   0.000020
  34  -0.000020
  35  -0.441870
  36   0.000000
  37   0.000010
  38  -0.000010
  39  -0.302200
  40   0.000000
  41   0.000000
  42   0.000000
  43   0.000000
  44   0.018390
  45  -0.012490
  46   0.000000
  47   0.000000
  48   0.000000
  49   0.000010
 Ene=    -0.2431
 Spin= Alpha
 Occup=   2.000000
   1   0.011820
   2  -0.017880
   3   0.011030
   4  -0.046490
   5   0.000000
   6  -0.066630
   7   0.126770
   8   0.051420
   9   0.000000
  10   0.038570
  11  -0.039310
  12  -0.002490
  13   0.024470
  14   0.000000
  15   0.000000
  16  -0.017470
  17   0.030820
  18   0.250860
  19  -0.009080
  20   0.000000
  21   0.195080
  22   0.207620
  23  -0.010590
  24   0.000000
  25   0.001240
  26  -0.010890
  27  -0.007980
  28  -0.006890
  29   0.000000
  30   0.000000
  31  -0.001970
  32   0.014580
  33   0.321320
  34   0.497810
  35   0.000000
  36  -0.032300
  37   0.226310
  38   0.334170
  39   0.000000
  40  -0.014740
  41   0.019780
  42   0.003470
  43  -0.010740
  44   0.000000
  45   0.000000
  46  -0.008170
  47  -0.092840
  48  -0.137700
  49  -0.209510
 Ene=    -0.0418
 Spin= Alpha
 Occup=   0.000000
   1   0.000010
   2  -0.000020
   3   0.000010
   4  -0.000010
   5   0.566660
   6  -0.000130
   7   0.000010
   8  -0.000040
   9   0.543610
  10   0.000000
  11   0.000000
  12   0.000000
  13   0.000000
  14  -0.012710
  15   0.024750
  16   0.000000
  17   0.000010
  18   0.000020
  19   0.000000
  20  -0.277810
  21   0.000040
  22   0.000020
  23   0.000000
  24  -0.273550
  25   0.000000
  26   0.000000
  27   0.000000
  28   0.000000
  29   0.011100
  30   0.019680
  31   0.000000
  32   0.000010
  33  -0.000010
  34   0.000000
  35  -0.413280
  36   0.000000
  37   0.000000
  38   0.000010
  39  -0.414390
  40   0.000000
  41   0.000000
  42   0.000000
  43   0.000000
  44  -0.002470
  45   0.004750
  46   0.000000
  47  -0.000030
  48   0.000030
  49   0.000090
 Ene=     0.0395
 Spin= Alpha
 Occup=   0.000000
   1  -0.029180
   2   0.036950
   3  -0.080490
   4   0.033950
   5   0.000030
   6   0.367470
   7  -0.157960
   8   0.161300
   9   0.000040
  10   0.005410
  11  -0.015190
  12   0.004890
  13  -0.013570
  14   0.000000
  15   0.000000
  16   0.085640
  17  -0.150250
  18  -0.065680
  19   0.325100
  20  -0.000010
  21  -0.978760
  22  -0.123970
  23   0.458100
  24  -0.000010
  25   0.020840
  26   0.021580
  27   0.031190
  28   0.013730
  29   0.000000
  30   0.000000
  31   0.006750
  32  -0.043010
  33   0.057080
  34   0.095180
  35  -0.000020
  36   0.051870
  37   0.040870
  38   0.064160
  39  -0.000020
  40  -0.013600
  41  -0.005180
  42  -0.005330
  43   0.004380
  44   0.000000
  45   0.000000
  46   0.210720
  47   1.361790
  48  -0.095760
  49  -0.469100
 Ene=     0.1024
 Spin= Alpha
 Occup=   0.000000
   1   0.127400
   2  -0.244300
   3   0.052060
   4  -0.302070
   5  -0.000050
   6  -1.758360
   7   0.059620
   8  -0.665410
   9  -0.000100
  10   0.022340
  11   0.006130
  12  -0.015050
  13  -0.002410
  14   0.000000
  15   0.000000
  16  -0.009630
  17   0.013190
  18   0.136680
  19   0.162200
  20   0.000020
  21   0.094230
  22   0.179010
  23   0.302960
  24   0.000020
  25  -0.003870
  26  -0.005620
  27  -0.006480
  28  -0.013290
  29   0.000000
  30   0.000000
  31  -0.020580
  32   0.044880
  33  -0.063360
  34   0.150160
  35   0.000020
  36   0.192440
  37  -0.065830
  38   0.234360
  39   0.000030
  40   0.000610
  41  -0.001770
  42  -0.010850
  43   0.003200
  44   0.000000
  45   0.000000
  46   0.058070
  47   0.338310
  48   0.118840
  49   1.817390
 Ene=     0.2097
 Spin= Alpha
 Occup=   0.000000
   1  -0.084780
   2   0.061190
   3  -0.293070
   4  -0.460490
   5   0.000010
   6   1.432360
   7  -0.419230
   8  -1.227060
   9   0.000030
  10  -0.039660
  11  -0.010030
  12   0.036200
  13  -0.002750
  14   0.000000
  15   0.000000
  16   0.068910
  17  -0.160160
  18  -0.346940
  19  -0.182190
  20   0.000000
  21  -0.837230
  22  -0.722320
  23  -0.248280
  24   0.000010
  25   0.014250
  26  -0.015620
  27   0.020160
  28   0.001890
  29   0.000000
  30   0.000000
  31   0.052200
  32  -0.092420
  33   0.248340
  34   0.095300
  35   0.000000
  36  -0.780450
  37   0.565330
  38   0.106510
  39   0.000000
  40   0.013580
  41  -0.004470
  42   0.028380
  43   0.011410
  44   0.000000
  45   0.000000
  46  -0.103540
  47  -0.408820
  48  -0.077430
  49   0.744280
 Ene=     0.2352
 Spin= Alpha
 Occup=   0.000000
   1  -0.006010
   2  -0.100290
   3   0.289530
   4  -0.035610
   5   0.000000
   6   0.926630
   7   2.118740
   8  -0.869570
   9   0.000020
  10  -0.001560
  11  -0.006580
  12   0.007450
  13   0.027670
  14   0.000000
  15   0.000000
  16  -0.046030
  17   0.056940
  18   0.023950
  19   0.173900
  20  -0.000010
  21   0.779610
  22   0.227330
  23   0.449870
  24  -0.000020
  25  -0.010300
  26  -0.046140
  27  -0.004100
  28  -0.006050
  29   0.000000
  30   0.000000
  31   0.105360
  32  -0.110970
  33   0.068560
  34  -0.170940
  35   0.000010
  36  -2.081250
  37   0.612620
  38  -0.579850
  39   0.000030
  40   0.017490
  41   0.052440
  42   0.058820
  43   0.032860
  44   0.000000
  45   0.000000
  46  -0.073340
  47   0.190900
  48  -0.074300
  49   0.428420
 Ene=     0.4733
 Spin= Alpha
 Occup=   0.000000
   1   0.000000
   2   0.000000
   3   0.000060
   4   0.000050
   5  -0.975400
   6   0.000110
   7  -0.000110
   8  -0.000140
   9   1.269920
  10   0.000010
  11   0.000000
  12   0.000000
  13   0.000000
  14   0.006450
  15   0.030990
  16   0.000000
  17   0.000010
  18   0.000020
  19   0.000000
  20  -0.133270
  21  -0.000120
  22  -0.000050
  23   0.000000
  24  -0.117590
  25  -0.000010
  26   0.000010
  27   0.000010
  28  -0.000010
  29  -0.041400
  30  -0.012940
  31   0.000000
  32   0.000000
  33   0.000000
  34   0.000000
  35  -0.091780
  36  -0.000060
  37   0.000040
  38   0.000000
  39  -0.142380
  40  -0.000010
  41   0.000000
  42   0.000010
  43   0.000000
  44   0.054250
  45  -0.031460
  46   0.000010
  47  -0.000040
  48   0.000010
  49   0.000010
 Ene=     0.4909
 Spin= Alpha
 Occup=   0.000000
   1  -0.001820
   2  -0.634660
   3   0.776530
   4   0.350480
   5   0.000080
   6   1.659900
   7  -1.337800
   8  -1.167400
   9  -0.000080
  10   0.031610
  11  -0.066420
  12  -0.009070
  13   0.042440
  14   0.000000
  15   0.000000
  16   0.007010
  17   0.075170
  18   0.238770
  19  -0.036480
  20   0.000010
  21  -1.044800
  22  -0.430820
  23  -0.066480
  24   0.000020
  25  -0.111100
  26   0.028080
  27   0.092850
  28  -0.102850
  29   0.000010
  30   0.000000
  31   0.023560
  32  -0.077380
  33   0.061730
  34   0.025060
  35   0.000000
  36  -0.262740
  37   0.400920
  38   0.040090
  39   0.000010
  40  -0.055870
  41   0.027700
  42   0.011340
  43  -0.030390
  44   0.000000
  45   0.000000
  46   0.057430
  47  -0.495750
  48  -0.148810
  49   0.351150
 Ene=     0.6070
 Spin= Alpha
 Occup=   0.000000
   1  -0.051860
   2   0.650840
   3   0.617040
   4  -0.655410
   5   0.000000
   6  -0.670170
   7  -0.528440
   8   1.387930
   9   0.000020
  10  -0.074610
  11   0.024000
  12   0.063350
  13   0.148480
  14  -0.000010
  15   0.000000
  16  -0.007280
  17  -0.067950
  18   0.095190
  19   0.104390
  20  -0.000010
  21   0.253220
  22   0.135360
  23  -0.156770
  24   0.000000
  25   0.014230
  26  -0.060000
  27  -0.036550
  28  -0.030050
  29   0.000000
  30   0.000000
  31   0.027780
  32  -0.097980
  33   0.349670
  34  -0.312470
  35   0.000000
  36   0.601150
  37  -0.086970
  38  -0.089620
  39   0.000000
  40   0.139100
  41   0.016050
  42  -0.070210
  43  -0.128490
  44   0.000010
  45  -0.000010
  46  -0.039200
  47   0.298540
  48   0.016710
  49  -0.619200
 Ene=     0.6468
 Spin= Alpha
 Occup=   0.000000
   1  -0.028310
   2  -0.528980
   3  -0.181190
   4  -0.258650
   5  -0.000020
   6   1.124300
   7   0.076500
   8   1.168920
   9   0.000070
  10  -0.005050
  11  -0.160900
  12   0.040770
  13  -0.029730
  14   0.000000
  15  -0.000020
  16   0.016050
  17  -0.252160
  18   0.161310
  19  -0.121680
  20  -0.000040
  21   0.321520
  22  -0.136520
  23  -0.002470
  24   0.000020
  25  -0.114600
  26   0.007040
  27  -0.073740
  28   0.043230
  29   0.000000
  30   0.000000
  31  -0.008520
  32   0.023190
  33  -0.244750
  34  -0.295110
  35  -0.000040
  36   0.107210
  37  -0.025840
  38   0.071430
  39   0.000010
  40  -0.022490
  41   0.001340
  42   0.028080
  43  -0.001320
  44   0.000000
  45   0.000000
  46   0.328240
  47  -0.173530
  48  -0.756330
  49  -0.396230
 Ene=     0.7011
 Spin= Alpha
 Occup=   0.000000
   1   0.042420
   2  -0.342120
   3  -0.099370
   4  -0.161970
   5  -0.000010
   6   0.935630
   7  -0.092340
   8   0.558980
   9   0.000030
  10   0.070290
  11   0.027240
  12  -0.051980
  13   0.065710
  14   0.000000
  15   0.000000
  16  -0.012790
  17   0.024200
  18   0.525120
  19  -0.354610
  20  -0.000020
  21  -0.237470
  22  -0.647110
  23  -0.068660
  24   0.000020
  25  -0.001270
  26  -0.170900
  27   0.063320
  28   0.009560
  29   0.000000
  30   0.000000
  31  -0.006470
  32   0.062950
  33  -0.130370
  34   0.036020
  35  -0.000010
  36  -0.043830
  37   0.042040
  38  -0.067210
  39   0.000010
  40  -0.017490
  41   0.012570
  42   0.022260
  43   0.028860
  44   0.000000
  45   0.000000
  46  -0.860190
  47   0.816060
  48   0.158970
  49  -0.742680
 Ene=     0.7793
 Spin= Alpha
 Occup=   0.000000
   1   0.035930
   2  -0.792570
   3   0.098700
   4  -0.635940
   5  -0.000020
   6   2.361770
   7  -0.091240
   8   1.065590
   9   0.000070
  10  -0.007410
  11   0.092590
  12  -0.106080
  13  -0.106960
  14   0.000000
  15   0.000010
  16   0.004660
  17  -0.015170
  18  -0.044900
  19   0.182970
  20   0.000000
  21  -0.162460
  22   0.013200
  23  -0.244300
  24  -0.000010
  25  -0.041350
  26   0.043070
  27   0.001270
  28  -0.051700
  29   0.000000
  30   0.000000
  31   0.006090
  32  -0.198550
  33  -0.314910
  34   0.170090
  35  -0.000020
  36   0.033690
  37   0.595600
  38  -0.405570
  39   0.000020
  40  -0.057500
  41  -0.144600
  42  -0.046480
  43   0.059770
  44   0.000000
  45   0.000000
  46   0.278460
  47  -0.295950
  48   0.681080
  49  -1.891830
 Ene=     0.8028
 Spin= Alpha
 Occup=   0.000000
   1  -0.028320
   2  -0.977900
   3  -0.142240
   4  -0.076530
   5  -0.000020
   6   1.041850
   7  -0.051170
   8   0.687210
   9   0.000020
  10  -0.203830
  11  -0.026120
  12   0.009010
  13   0.112750
  14   0.000000
  15   0.000000
  16  -0.010950
  17  -0.025110
  18  -0.139120
  19   0.165640
  20  -0.000040
  21   0.076710
  22   0.250980
  23  -0.236530
  24   0.000040
  25   0.001510
  26  -0.046950
  27   0.031090
  28  -0.054450
  29   0.000000
  30   0.000000
  31  -0.012490
  32   0.480920
  33   0.455910
  34  -0.270390
  35  -0.000010
  36  -0.530070
  37  -0.920210
  38   0.507720
  39  -0.000010
  40   0.210560
  41   0.152590
  42   0.178420
  43   0.008220
  44   0.000000
  45   0.000000
  46  -0.077060
  47  -0.028800
  48   0.248640
  49  -0.953850
 Ene=     0.8382
 Spin= Alpha
 Occup=   0.000000
   1   0.000000
   2   0.000020
   3   0.000010
   4  -0.000010
   5   0.058260
   6  -0.000040
   7  -0.000010
   8   0.000040
   9  -0.304020
  10   0.000010
  11   0.000000
  12   0.000000
  13  -0.000010
  14   0.009830
  15  -0.041080
  16   0.000000
  17   0.000020
  18  -0.000030
  19  -0.000010
  20  -0.882440
  21  -0.000030
  22   0.000040
  23   0.000010
  24   1.092450
  25   0.000010
  26   0.000010
  27   0.000000
  28   0.000000
  29  -0.022880
  30  -0.023960
  31   0.000000
  32  -0.000020
  33   0.000000
  34   0.000050
  35   0.343180
  36   0.000060
  37   0.000000
  38  -0.000060
  39  -0.323180
  40  -0.000010
  41  -0.000010
  42  -0.000010
  43   0.000000
  44  -0.021960
  45  -0.023020
  46   0.000000
  47   0.000030
  48   0.000000
  49  -0.000010
 Ene=     0.8897
 Spin= Alpha
 Occup=   0.000000
   1  -0.022120
   2  -0.233530
   3   0.160900
   4  -0.189260
   5   0.000010
   6  -0.017700
   7  -0.142440
   8   1.317490
   9  -0.000130
  10  -0.108170
  11  -0.089540
  12   0.045750
  13  -0.081550
  14  -0.000010
  15  -0.000030
  16  -0.001390
  17   0.709080
  18  -0.525070
  19  -0.409440
  20  -0.000060
  21  -1.280850
  22   1.021320
  23   0.477210
  24   0.000080
  25   0.205030
  26   0.165350
  27   0.264260
  28   0.044070
  29   0.000010
  30  -0.000020
  31  -0.008590
  32  -0.094600
  33  -0.014160
  34   0.124810
  35  -0.000250
  36   0.630970
  37  -0.144800
  38  -0.236770
  39   0.000320
  40  -0.018930
  41  -0.014730
  42  -0.058510
  43  -0.019300
  44   0.000000
  45  -0.000010
  46  -0.438170
  47   1.225870
  48  -0.261990
  49  -0.621970
 Ene=     0.9245
 Spin= Alpha
 Occup=   0.000000
   1   0.000010
   2   0.000100
   3  -0.000050
   4   0.000060
   5   0.114880
   6  -0.000030
   7   0.000040
   8  -0.000300
   9  -0.733450
  10   0.000060
  11   0.000020
  12  -0.000020
  13   0.000020
  14  -0.039750
  15  -0.047200
  16   0.000000
  17  -0.000180
  18   0.000130
  19   0.000170
  20  -0.321880
  21   0.000380
  22  -0.000280
  23  -0.000260
  24   0.536920
  25  -0.000050
  26  -0.000040
  27  -0.000070
  28  -0.000010
  29  -0.002650
  30  -0.058150
  31   0.000000
  32   0.000010
  33   0.000060
  34   0.000060
  35  -0.873840
  36  -0.000100
  37  -0.000040
  38  -0.000070
  39   1.242140
  40  -0.000010
  41   0.000000
  42   0.000010
  43   0.000010
  44   0.014110
  45  -0.041290
  46   0.000100
  47  -0.000400
  48   0.000040
  49   0.000220
 Ene=     0.9994
 Spin= Alpha
 Occup=   0.000000
   1   0.003490
   2   0.230090
   3   0.102690
   4   0.256160
   5   0.000030
   6  -1.099960
   7  -0.363240
   8  -1.191740
   9  -0.000170
  10  -0.136850
  11   0.159250
  12  -0.014290
  13  -0.047300
  14   0.000000
  15   0.000010
  16  -0.011590
  17  -0.057870
  18  -0.148670
  19  -0.102450
  20  -0.000070
  21  -0.026000
  22   0.291320
  23   0.311110
  24   0.000120
  25  -0.033680
  26  -0.072510
  27   0.039770
  28  -0.031490
  29  -0.000010
  30  -0.000010
  31  -0.002840
  32  -0.067020
  33  -0.417990
  34  -0.689090
  35  -0.000090
  36   0.186480
  37   0.662620
  38   1.226730
  39   0.000160
  40   0.077670
  41  -0.088300
  42  -0.043930
  43   0.048900
  44   0.000010
  45   0.000000
  46  -0.166040
  47   0.247550
  48   0.184140
  49   0.749920
 Ene=     1.0578
 Spin= Alpha
 Occup=   0.000000
   1  -0.017060
   2   0.096700
   3  -0.049380
   4  -0.048080
   5   0.000010
   6  -1.483470
   7   0.885280
   8   0.119230
   9  -0.000080
  10  -0.146800
  11   0.149940
  12  -0.066490
  13   0.056200
  14  -0.000010
  15   0.000010
  16  -0.012610
  17  -0.316240
  18   0.033600
  19  -0.694040
  20  -0.000010
  21   1.086440
  22   0.347430
  23   1.660010
  24   0.000020
  25  -0.016000
  26  -0.009300
  27  -0.245690
  28  -0.184930
  29   0.000000
  30   0.000000
  31  -0.013890
  32  -0.351610
  33   0.247670
  34   0.015700
  35  -0.000040
  36   0.714700
  37  -0.598910
  38   0.074030
  39   0.000080
  40  -0.076970
  41  -0.069630
  42  -0.116500
  43   0.015540
  44   0.000010
  45  -0.000010
  46   0.424880
  47   0.463610
  48   0.279090
  49  -0.141990
 Ene=     1.3157
 Spin= Alpha
 Occup=   0.000000
   1   0.000000
   2   0.000000
   3   0.000000
   4  -0.000020
   5   0.039660
   6   0.000040
   7   0.000110
   8   0.000030
   9  -0.007500
  10   0.000010
  11  -0.000010
  12  -0.000010
  13   0.000020
  14   0.578910
  15   0.202740
  16   0.000000
  17  -0.000040
  18  -0.000010
  19  -0.000010
  20   0.023500
  21   0.000120
  22   0.000040
  23   0.000040
  24   0.140770
  25  -0.000030
  26  -0.000020
  27   0.000010
  28  -0.000020
  29  -0.454440
  30  -0.239390
  31   0.000000
  32   0.000050
  33   0.000000
  34   0.000010
  35  -0.085460
  36  -0.000150
  37   0.000020
  38  -0.000060
  39  -0.058530
  40   0.000000
  41   0.000040
  42  -0.000010
  43  -0.000020
  44  -0.105410
  45   0.292430
  46   0.000010
  47   0.000000
  48  -0.000010
  49  -0.000030
 Ene=     1.3283
 Spin= Alpha
 Occup=   0.000000
   1   0.006050
   2   0.082720
   3   0.069250
   4   0.096770
   5  -0.000050
   6  -1.245590
   7   1.506770
   8   0.894770
   9   0.000060
  10  -0.047890
  11   0.100520
  12  -0.112420
  13  -0.031710
  14   0.000020
  15  -0.000160
  16  -0.089840
  17  -1.499000
  18  -0.348110
  19  -0.025880
  20   0.000030
  21   4.257580
  22   1.384950
  23   0.033700
  24  -0.000090
  25  -0.507920
  26  -0.553150
  27  -0.124390
  28  -0.101250
  29   0.000070
  30  -0.000040
  31   0.008650
  32   0.388840
  33  -0.084860
  34   0.240770
  35   0.000000
  36  -0.791210
  37   0.000380
  38  -0.660650
  39  -0.000050
  40   0.155520
  41   0.254850
  42  -0.149270
  43   0.023660
  44  -0.000080
  45  -0.000030
  46  -0.303420
  47  -0.249080
  48  -0.172720
  49  -0.182880
 Ene=     1.3962
 Spin= Alpha
 Occup=   0.000000
   1   0.000020
   2   0.000210
   3   0.000070
   4  -0.000050
   5   0.172440
   6   0.001850
   7   0.001870
   8  -0.001540
   9  -0.207410
  10   0.000060
  11  -0.000100
  12   0.000060
  13  -0.000210
  14  -0.147290
  15   0.679750
  16   0.000000
  17  -0.000110
  18   0.000020
  19  -0.000210
  20  -0.043200
  21   0.000300
  22  -0.000100
  23   0.000760
  24   0.136510
  25  -0.000110
  26  -0.000030
  27   0.000070
  28  -0.000010
  29  -0.211170
  30   0.300870
  31   0.000090
  32   0.001500
  33  -0.000140
  34   0.000120
  35   0.042350
  36  -0.004910
  37   0.001300
  38  -0.000820
  39   0.190710
  40   0.000410
  41   0.000300
  42   0.000400
  43  -0.000170
  44   0.432840
  45   0.012460
  46   0.000170
  47   0.000080
  48   0.000110
  49   0.000440
 Ene=     1.4208
 Spin= Alpha
 Occup=   0.000000
   1  -0.028440
   2  -0.230070
   3  -0.058540
   4   0.036330
   5   0.000130
   6  -2.520220
   7  -1.793670
   8   2.106960
   9  -0.000160
  10  -0.029130
  11   0.071380
  12  -0.075210
  13   0.224840
  14  -0.000120
  15   0.000580
  16  -0.023250
  17  -0.280460
  18  -0.130090
  19   0.219850
  20  -0.000030
  21   0.790670
  22   0.519030
  23  -0.883900
  24   0.000100
  25  -0.063380
  26  -0.100340
  27  -0.064400
  28   0.075850
  29  -0.000180
  30   0.000240
  31  -0.101170
  32  -1.688870
  33   0.158320
  34  -0.089170
  35   0.000060
  36   5.598580
  37  -1.570900
  38   0.786960
  39   0.000070
  40  -0.509570
  41  -0.230770
  42  -0.489920
  43   0.191720
  44   0.000370
  45   0.000020
  46  -0.287850
  47  -0.148430
  48  -0.154830
  49  -0.613350
 Ene=     1.6182
 Spin= Alpha
 Occup=   0.000000
   1  -0.017070
   2  -0.310780
   3  -0.031640
   4   0.099340
   5  -0.000010
   6   1.927200
   7  -0.656710
   8   0.030170
   9   0.000050
  10   0.021440
  11   0.336860