[Molden Format]
[Molpro variables]
_NUMVAR=  795.0000000000000    
_AVOGAD= 0.6022136736000000E+24
_BOLTZ= 0.1380658000000000E-22
_CLIGHT=  29979245800.00000    
_EV2006= 0.3674930886769165E-01
_EV= 0.3674932534394180E-01
_ENULL= 0.8854187817000000E-11
_KJOULE= 0.3808798324128737E-03
_KJOULE/MOL= 0.3808798324128737E-03
_CM= 0.4556335267302901E-05
_CM-1= 0.4556335267302901E-05
_DEB2SI= 0.3335641000000000E-29
_AMU2AU=  1822.888390000000    
_KCAL= 0.1593601117815568E-02
_KCAL/MOL= 0.1593601117815568E-02
_KELVIN2006= 0.3166828861084835E-05
_KELVIN= 0.3166814820820034E-05
_JOULE= 0.4359748200000000E-17
_HERTZ2006= 0.1519829850815779E-15
_HERTZ= 0.1519829846011223E-15
_HZ2006= 0.1519829850815779E-15
_HZ= 0.1519829846011223E-15
_JPCAL=  4.184000000000000    
_PLANCK= 0.6626075540000000E-33
_TOA2006= 0.5291772490000000    
_TOA= 0.5291772090000000    
_TOANG2006= 0.5291772490000000    
_TOANG= 0.5291772090000000    
_TORAD= 0.1745329251994330E-01
_TOCM=  219474.6306700000    
_TODEBYE=  2.541580000000000    
_TOEV2006=  27.21139610000000    
_TOE= 0.4803242000000000E-09
_TOEV=  27.21138390000000    
_TOHERTZ2006=  6579683899900000.    
_TOHERTZ=  6579683920700000.    
_TOHZ2006=  6579683899900000.    
_TOHZ=  6579683920700000.    
_TOK2006=  315773.3000000000    
_TOK=  315774.7000000000    
_TOKCAL=  627.5096000000000    
_TOKELVIN2006=  315773.3000000000    
_TOKELVIN=  315774.7000000000    
_TOKJ=  2625.500000000000    
_TOKJOULE=  2625.500000000000    
_TOKG= 0.1660565586000000E-26
_ANG2006=  1.889725988578923    
_ANG=  1.889726131421507    
_ANGSTROM2006=  1.889725988578923    
_ANGSTROM=  1.889726131421507    
_RPAREF=  0.000000000000000    
_RPADISS=  0.000000000000000    
_IGNORE_UNDEF=  2.000000000000000    
_STRICTCHECK=  0.000000000000000    
_SEW_ONEEL=  0.000000000000000    
_CPPDONE=FALSE
_DKROLL_DONE=  211.0000000000000    
_FOCKDONE=FALSE
_GRADONE=FALSE
_HESSDONE=TRUE
_INTDONE=TRUE
_SCFDONE=FALSE
_MODUL_BLOCK=TRUE
_MODUL_CUDA=FALSE
_MODUL_SLATER=FALSE
_MODUL_MRCC=FALSE
_MODUL_NBO6=FALSE
_MODUL_NECI=TRUE
_MODUL_AIMS=TRUE
_MRCC_EXEC=
_FITC_AO_SAVED=FALSE
_FITC_MO_SAVED=FALSE
_SHARED_FS=TRUE
_LSTYP=SEWARD
_INTYP=INTS
_GEOMTYP=ZMAT
_GRADTYP=ALASKA
_DIRECT=FALSE
_DKHO=  2.000000000000000    
_DKHP=  1.000000000000000    
_SYNCM=  0.000000000000000    
_BASIS=DEF2-SVP
_ZUNIT=ANG
_ZORIENT=  1.000000000000000    
_NELEC=  24.00000000000000    
!SPIN=  0.000000000000000    
_OPTCONV= 0.6692904694159754E-03
_QSDSTEP=  0.000000000000000    
_QSDIRC=  0.000000000000000    
_PROGRAM=FREQ
_CPUSTEP=  0.000000000000000    
_SYSSTEP=  0.000000000000000    
_WALLSTEP= 0.1000000000000000E-01
!DFHFENERG=  0.000000000000000    
!SCSGRD=  0.000000000000000    
_BASINP=  610.0000000000000    
_CPUTOT=  29.42000000000000    
_CPUSORT= 0.5000000000000071E-01
_SYSSORT= 0.2000000000000046E-01
_WALLSORT= 0.8000000007450581E-01
_DMX=-0.4815238858245265E-08
_DMY=  0.000000000000000    
_DMZ= 0.9187125664879714E-01
_FREQUENCIES= 0.3544797571948970E-04
_ENERGY= -329.5062895390173    
_ENUC=  51.06864853500634    
_EPS1= -68.94955895171728    
_FREQSTEP=  19.00000000000000    
_GRADENERG= -329.5062854360923    
_GRADMETHOD=TRUE
_NMRMETHOD=  0.000000000000000    
_VIRIAL=-0.3338240296171404E-02
!GRID_FREEZE= -1.000000000000000    
_ITERATIONS=  1.000000000000000    
_LASTNELEC=  2.000000000000000    
_LASTSPIN=  0.000000000000000    
_LASTSYM=  1.000000000000000    
_MPP_PROG=  0.000000000000000    
_NPROC_MPP=  1.000000000000000    
_NPROC_MPPX=  1.000000000000000    
_NPROC_SMP=  1.000000000000000    
_NUMSTEP=  0.000000000000000    
_OPTCONVMX= 0.4654592255173284E-03
_OPTCONVRMS= 0.2732366899628689E-03
_OPTGRAD= 0.2504877187498376E-03
_OPTGRADMX= 0.2205940228105336E-03
_OPTGRADRMS= 0.2087397656248647E-04
_OPTSTEP=  8.000000000000000    
_ORBITAL=  2140.200000000000    
_PI=  3.141592653589793    
!MCACT=  2.000000000000000    
!MCCLOSED=  11.00000000000000    
!MCFREEZE=  0.000000000000000    
!MCMS2=  0.000000000000000    
!MCNEL=  2.000000000000000    
!MCNSTSYM=  2.000000000000000    
!MCSTATE=  2.000000000000000    
!MCSYM=  1.000000000000000    
!MCWEIGHT= 0.3333333333333333    
_SEIG_MIN= 0.1442568401002242E-01
_SEWPROP=TRUE
_STATUS=  1.000000000000000    
_SYSTOT=  6.280000000000000    
_VERSION=  2012001.000000000    
_WALLTOT=  44.15000000000000    
_ZPE= 0.4323841476886468E-01
_DATE=12-Jun-14
_LASTORB=MCSCF
_MACHINE=Linux-2.6.32-220.el6.x86_64/cesium(x86_64) 64 bit serial version
_OUTPUT=/user/mai/Documents/NewSHARC/SHARC_1.5/TESTS/Test-Molecules/CSiH4/Opt/MOLPRO.xml
_PGROUP=C1
_TIME=08:57:41
_LIBMOL=/usr/license/molpro/molpros_2012_1_5_Linux_x86_64_i8/lib/
!VIBCNT=  0.000000000000000    
!RGHFCNT=  0.000000000000000    
!SURFREC=  0.000000000000000    
!POLYREC=  0.000000000000000    
!DIPREC=  0.000000000000000    
!VSCFREC=  0.000000000000000    
!VCIREC=  0.000000000000000    
!PVCIREC=  0.000000000000000    
!VMP2REC=  0.000000000000000    
!VMCSCFREC=  0.000000000000000    
!VMRCIREC=  0.000000000000000    
!VIBINFO=  0.000000000000000    
!GAREC=  0.000000000000000    
!MCORB=  21402.00000000000    
!NEWMOL=  0.000000000000000    
!NEWSYM=  0.000000000000000    
_SLFILES=slscratch
_NGSSTO=  9.000000000000000    
_SIN=SIN
_COS=COS
_TAN=TAN
_ACOS=ACOS
_ASIN=ASIN
_ATAN=ATAN
_COSH=COSH
_SINH=SINH
_TANH=TANH
_ABS=ABS
_MOD=MOD
_ERF=ERF
_REFC=REFC
_ERFC=ERFC
_HYPOT=HYPOT
_J0=J0
_J1=J1
_JN=JN
_GAMMA=GAMMA
_LGAMMA=LGAMMA
_Y0=Y0
_Y1=Y1
_YN=YN
_EXP=EXP
_LOG=LOG
_LOG10=LOG10
_SQRT=SQRT
_INT=INT
_NINT=NINT
_MAX=MAX
_MIN=MIN
_COSMO=  0.000000000000000    
_COSMOIT=  0.000000000000000    
_COSMOES=  0.000000000000000    
_COSMOEDS=  0.000000000000000    
_COSMOEC=  0.000000000000000    
_COSMOEDCORR=  0.000000000000000    
_FEPSI=  1.000000000000000    
_SL_IsMM=  0.000000000000000    
_SL_NSYM=  1.000000000000000    
_SL_System_BitSw=  0.000000000000000    
_SL_Unique_atoms=  0.000000000000000    
_SL_GRAD=  0.000000000000000    
_SL_MAXUPD_Hess=  5.000000000000000    
_SL_N_PRINT_COD=  5.000000000000000    
_SL_PRINT_CODES=  0.000000000000000    
_SL_BasType=  0.000000000000000    
_SL_Energy_Pred=  0.000000000000000    
_SL_New_Coords=  0.000000000000000    
_SL_Total_Nuclea=  24.00000000000000    
_SL_Highest_Mltp=  0.000000000000000    
_SL_Ref_Geom=  0.000000000000000    
_SL_Symmetry_ope=  1.000000000000000    
_SL_agrad=  0.000000000000000    
_SL_GrdMax=  0.000000000000000    
_SL_GrdNorm=  0.000000000000000    
_SL_GrdRMS=  0.000000000000000    
!LATTICE= -1.000000000000000    
!NEWLATTICE=  0.000000000000000    
!LATGRAD_VAR=FALSE
!SEW_LATTICE=  1.000000000000000    
!LOCAL=  0.000000000000000    
!SAVEDOM= -1.000000000000000    
!RESTDOM= -1.000000000000000    
!SAVEDOM_HF= -1.000000000000000    
!RESTDOM_HF= -1.000000000000000    
!HESSREC=  5300.200000000000    
!FREQREC=  5400.200000000000    
!NMODREC=  5450.200000000000    
!GTASKS=  0.000000000000000    
!HTASKS=  5500.200000000000    
!DEBUG=  0.000000000000000    
!CFIT_CPHF=  0.000000000000000    
!RDOMAUX_CPHF=  0.000000000000000    
!THRAO_CPHF= 0.1000000000000000E-11
!THRMO_CPHF= 0.1000000000000000E-11
!THROV_CPHF= 0.1000000000000000E-11
!THRSW_CPHF= 0.1000000000000000E-11
!THRPROD_CPHF= 0.1000000000000000E-11
!THRAOPR_CPHF= 0.1000000000000000E-11
!CFIT_SCFGRD=  0.000000000000000    
!RDOMAUX_SCFGRD=  0.000000000000000    
!THRAO_SCFGRD= 0.1000000000000000E-11
!THRMO_SCFGRD= 0.1000000000000000E-11
!THROV_SCFGRD= 0.1000000000000000E-11
!THRSW_SCFGRD= 0.1000000000000000E-11
!THRPROD_SCFGRD= 0.1000000000000000E-11
!THRAOPR_SCFGRD= 0.1000000000000000E-11
!LOCFIT_SCF=  0.000000000000000    
!LOCFIT_MP2=  0.000000000000000    
_RIDOM=  0.000000000000000    
!CC2_METHOD=  0.000000000000000    
_BASIS2006=FALSE
_SVDDEL= -1.000000000000000    
_SVDDELA= -1.000000000000000    
_SVDDELP= -1.000000000000000    
_SVDDELF= -1.000000000000000    
_SVDDELS= -1.000000000000000    
_SVDDEL_ABS= -1.000000000000000    
_SVDDELA_ABS= -1.000000000000000    
_SVDDELP_ABS= -1.000000000000000    
_SVDDELF_ABS= -1.000000000000000    
_SVDDELS_ABS= -1.000000000000000    
_MAXBASIS=  0.000000000000000    
!OPT_CONICAL=  0.000000000000000    
!CLEARSP_JGRID=  0.000000000000000    
_4EXT_NDISKS=  1.000000000000000    
!ZMP=  0.000000000000000    
_MAXIT_ZMP=  500.0000000000000    
_MAXDIS_ZMP=  100.0000000000000    
_ACCU_ZMP=  14.00000000000000    
_SHIFTA_ZMP= -100.0000000000000    
!EMBEDFLAG=  1.000000000000000    
!EMBED=FALSE
!EMBED_F12=FALSE
!EMBEDNUC=  0.000000000000000    
_EMBEDENERGY=  0.000000000000000    
_KSPACETIME=  0.000000000000000    
_RSPACETIME=  0.000000000000000    
!EMBED_DFC=FALSE
!NUM_VOIDS=  0.000000000000000    
_IBODY=  0.000000000000000    
_EMBE_TOTAL=  0.000000000000000    
_EMBE_HF=  0.000000000000000    
_EMBE_CORR=  0.000000000000000    
!EDFT=  0.000000000000000    
_IFASTLATGRAD=  0.000000000000000    
_SINDEX=  0.000000000000000    
DKROLL=  1.000000000000000    
DKHO=  2.000000000000000    
GX1= 0.4382869726871075E-09
GY1=-0.8392592176775796E-14
GZ1=-0.1558008531284586    
GX2=-0.1587594337243425E-08
GY2=-0.7251230865756854E-13
GZ2=  1.570264741540824    
GX3= 0.9161154644727247    
GY3=-0.4369742415133439E-12
GZ3=-0.7345436665815782    
GX4=  1.242989652551819    
GY4= 0.3235892456765477E-12
GZ4=  2.352311720883354    
GX5= -1.242989652701885    
GY5=-0.2674406638707256E-12
GZ5=  2.352311725214604    
GX6=-0.9161154631733511    
GY6= 0.4617342347309997E-12
GZ6=-0.7345436679287439    
_TRDMX= 0.2589826051822988E-08
_TRDMY=  0.000000000000000    
_TRDMZ= -1.787036633689297    
[Atoms] Angs
C     1    6         0.0000000004        0.0000000000       -0.1558008531
SI    2   14        -0.0000000016        0.0000000000        1.5702647415
H     3    1         0.9161154645        0.0000000000       -0.7345436666
H     4    1         1.2429896526        0.0000000000        2.3523117209
H     5    1        -1.2429896527        0.0000000000        2.3523117252
H     6    1        -0.9161154632        0.0000000000       -0.7345436679
[GTO]
  1 0
 s    5  1.00
  0.1238401694D+04  0.5517365048D-02
  0.1862900499D+03  0.4108882856D-01
  0.4225117635D+02  0.1822538213D+00
  0.1167655793D+02  0.4682845944D+00
  0.3593050648D+01  0.4457581734D+00
 s    1  1.00
  0.4024514736D+00  0.1000000000D+01
 s    1  1.00
  0.1309018267D+00  0.1000000000D+01
 p    3  1.00
  0.9468097062D+01  0.5688833201D-01
  0.2010354514D+01  0.3129405934D+00
  0.5477100471D+00  0.7606501651D+00
 p    1  1.00
  0.1526861379D+00  0.1000000000D+01
 d    1  1.00
  0.8000000000D+00  0.1000000000D+01
  
  2 0
 s    5  1.00
  0.6903711869D+04  0.5584465887D-02
  0.1038434642D+04  0.4174228444D-01
  0.2358758148D+03  0.1875280237D+00
  0.6606938517D+02  0.4786785966D+00
  0.2024794576D+02  0.4292569522D+00
 s    3  1.00
  0.3435348173D+02  0.8983489946D-01
  0.3637078819D+01 -0.5456859588D+00
  0.1400204860D+01 -0.5248108293D+00
 s    1  1.00
  0.2048441481D+00  0.1000000000D+01
 s    1  1.00
  0.7799409547D-01  0.1000000000D+01
 p    5  1.00
  0.1798390737D+03  0.1013349838D-01
  0.4190725885D+02  0.7102904110D-01
  0.1295529437D+02  0.2558391422D+00
  0.4438326739D+01  0.4814980471D+00
  0.1546224790D+01  0.3852119601D+00
 p    1  1.00
  0.3560761230D+00  0.1000000000D+01
 p    1  1.00
  0.1000851376D+00  0.1000000000D+01
 d    1  1.00
  0.3500000000D+00  0.1000000000D+01
  
  3 0
 s    3  1.00
  0.1301070100D+02  0.3348548481D-01
  0.1962257200D+01  0.2347218709D+00
  0.4445379600D+00  0.8137702853D+00
 s    1  1.00
  0.1219496200D+00  0.1000000000D+01
 p    1  1.00
  0.8000000000D+00  0.1000000000D+01
  
  4 0
 s    3  1.00
  0.1301070100D+02  0.3348548481D-01
  0.1962257200D+01  0.2347218709D+00
  0.4445379600D+00  0.8137702853D+00
 s    1  1.00
  0.1219496200D+00  0.1000000000D+01
 p    1  1.00
  0.8000000000D+00  0.1000000000D+01
  
  5 0
 s    3  1.00
  0.1301070100D+02  0.3348548481D-01
  0.1962257200D+01  0.2347218709D+00
  0.4445379600D+00  0.8137702853D+00
 s    1  1.00
  0.1219496200D+00  0.1000000000D+01
 p    1  1.00
  0.8000000000D+00  0.1000000000D+01
  
  6 0
 s    3  1.00
  0.1301070100D+02  0.3348548481D-01
  0.1962257200D+01  0.2347218709D+00
  0.4445379600D+00  0.8137702853D+00
 s    1  1.00
  0.1219496200D+00  0.1000000000D+01
 p    1  1.00
  0.8000000000D+00  0.1000000000D+01
 
 
[MO]
 Sym=      1.1
 Ene=     -68.9496
 Spin= Alpha
 Occup=    2.000000
1 -0.000083014770397
2 0.000031462226659
3 0.002786906636136
4 -0.000000000001275
5 0.0
6 0.000352819719497
7 0.000000000006347
8 0.0
9 0.002172287035720
10 -0.000127342476711
11 -0.000429540261790
12 0.000556882738501
13 0.0
14 -0.000000000000542
15 0.0
16 0.99534211235463
17 -0.018099200711825
18 -0.008081182708523
19 0.001995462086442
20 -0.000000000000148
21 0.0
22 -0.000034068273816
23 -0.000000000000126
24 0.0
25 0.000376140965469
26 -0.000000000009416
27 0.0
28 0.001534909453032
29 -0.000193822450257
30 0.000913960464987
31 -0.000720138014729
32 0.0
33 0.000000000005641
34 0.0
35 -0.000093304595013
36 -0.000034720712613
37 -0.000035008726846
38 0.0
39 -0.000240624154309
40 0.000828679865754
41 -0.000339702674154
42 -0.000613516859453
43 0.0
44 -0.000432934964393
45 0.000828679870755
46 -0.000339702686118
47 0.000613516861124
48 0.0
49 -0.000432934964529
50 -0.000093304594880
51 -0.000034720700678
52 0.000035008727476
53 0.0
54 -0.000240624153530
 Sym=      2.1
 Ene=     -11.2200
 Spin= Alpha
 Occup=    2.000000
1 0.99100612242142
2 0.035399588169894
3 -0.022786623600623
4 -0.000000000012448
5 0.0
6 -0.000206177496949
7 -0.000000000238030
8 0.0
9 -0.000899329417520
10 0.000864083437326
11 -0.001385945600597
12 0.000521862163272
13 0.0
14 0.000000000011397
15 0.0
16 -0.000027389069648
17 -0.000280230148319
18 -0.000121523229398
19 0.006024330506892
20 -0.000000000001701
21 0.0
22 -0.000250802300876
23 -0.000000000010669
24 0.0
25 0.001312881639050
26 0.000000000270102
27 0.0
28 -0.002775097392512
29 0.000952372479847
30 0.000546732443570
31 -0.001499104923417
32 0.0
33 -0.000000000054634
34 0.0
35 -0.002192729723852
36 0.004474103701281
37 0.001111742507521
38 0.0
39 -0.000617071897049
40 -0.000186560913437
41 -0.000835978493392
42 0.000046127403269
43 0.0
44 0.000361825459986
45 -0.000186560951956
46 -0.000835978165543
47 -0.000046127417950
48 0.0
49 0.000361825435991
50 -0.002192729842478
51 0.004474103523347
52 -0.001111742531720
53 0.0
54 -0.000617071928843
 Sym=      3.1
 Ene=      -6.1727
 Spin= Alpha
 Occup=    2.000000
1 0.000400951011938
2 -0.000043981185471
3 0.001546009482373
4 0.000000000009562
5 0.0
6 -0.000558058534371
7 0.000000000160385
8 0.0
9 0.000983316845611
10 0.000601233933641
11 0.000217807962612
12 -0.000819041896252
13 0.0
14 0.000000000044905
15 0.0
16 0.29350785307473
17 1.02930722397565
18 -0.023061857167997
19 0.008218240320882
20 0.000000000001871
21 0.0
22 -0.001085674405858
23 -0.000000000034345
24 0.0
25 0.000490282223160
26 -0.000000000113620
27 0.0
28 0.001380947286093
29 0.000513017651698
30 -0.000251140470354
31 -0.000261877181345
32 0.0
33 0.000000000015644
34 0.0
35 -0.000167876989906
36 -0.000479599570131
37 -0.000011368753109
38 0.0
39 -0.000317067979119
40 0.000010673324643
41 -0.001611038757665
42 0.000715700450428
43 0.0
44 0.000436274021239
45 0.000010673317397
46 -0.001611038904861
47 -0.000715700473385
48 0.0
49 0.000436274060028
50 -0.000167876956325
51 -0.000479599395635
52 0.000011368739288
53 0.0
54 -0.000317067952655
 Sym=      5.1
 Ene=      -4.2561
 Spin= Alpha
 Occup=    2.000000
1 0.001145108396900
2 -0.000416995383679
3 0.003703214312516
4 0.000000000057323
5 0.0
6 -0.000986106702259
7 0.000000000740099
8 0.0
9 0.003360385461994
10 0.000903131951681
11 0.000009578245019
12 -0.000912710196700
13 0.0
14 -0.000000000013467
15 0.0
16 0.000226960069466
17 0.000655726518926
18 -0.001609382263429
19 -0.004573032469182
20 -0.000000207813000
21 0.0
22 0.98767591126431
23 -0.000000008016436
24 0.0
25 0.038742224576425
26 0.000000001606637
27 0.0
28 -0.004668905855144
29 0.001079881134827
30 0.000594461981738
31 -0.001674343116565
32 0.0
33 -0.000000000006286
34 0.0
35 -0.000534148948099
36 -0.000263417267497
37 0.000014633897976
38 0.0
39 -0.000810878188206
40 -0.000370054763138
41 0.002022127225646
42 -0.000066861955858
43 0.0
44 -0.000166430358721
45 -0.000370054956743
46 0.002022128368006
47 0.000066862105209
48 0.0
49 -0.000166430388544
50 -0.000534148678816
51 -0.000263415819471
52 -0.000014633819687
53 0.0
54 -0.000810877942108
 Sym=      6.1
 Ene=      -4.2559
 Spin= Alpha
 Occup=    2.000000
1 0.000000000225812
2 -0.000000000426391
3 0.000000003324620
4 -0.000033888622038
5 0.0
6 -0.000000000132753
7 -0.000284719800418
8 0.0
9 0.000000001519507
10 0.000000000134566
11 -0.000000000135173
12 0.000000000000607
13 0.0
14 -0.000061375977892
15 0.0
16 0.000000000043917
17 0.000000000090501
18 -0.000000000649210
19 -0.000000002196606
20 0.98782966574690
21 0.0
22 0.000000207730606
23 0.038251428114353
24 0.0
25 0.000000008447869
26 -0.009526431778591
27 0.0
28 0.000000000098605
29 0.000000000449721
30 0.000000000275331
31 -0.000000000725051
32 0.0
33 0.000623234067211
34 0.0
35 -0.000017578206054
36 0.001705329488807
37 -0.000022137631397
38 0.0
39 0.000282282011972
40 -0.000613218019652
41 0.003680586169538
42 -0.000171878743122
43 0.0
44 -0.000090304225643
45 0.000613217767321
46 -0.003680585261782
47 -0.000171878782409
48 0.0
49 0.000090304166122
50 0.000017577847337
51 -0.001705330187351
52 -0.000022137695989
53 0.0
54 -0.000282282468837
 Sym=      7.1
 Ene=      -0.9028
 Spin= Alpha
 Occup=    2.000000
1 -0.24143522287990
2 0.46483295904297
3 0.20236783190497
4 -0.000000000078613
5 0.0
6 0.022263447329094
7 -0.000000001523341
8 0.0
9 0.016655631645208
10 0.001314254315024
11 -0.010864752198396
12 0.009550497883372
13 0.0
14 -0.000000000071741
15 0.0
16 0.027539537228770
17 0.17037883126594
18 0.25451813020968
19 0.014337957347404
20 -0.000000000166499
21 0.0
22 0.061189799337021
23 0.000000000083355
24 0.0
25 -0.098040933836542
26 0.000000001645095
27 0.0
28 -0.028268778645535
29 -0.020911514607189
30 -0.022434665930083
31 0.043346180537272
32 0.0
33 -0.000000000243376
34 0.0
35 0.18543939748972
36 0.025706724306533
37 -0.018568474694382
38 0.0
39 0.012458265143295
40 0.037678323196010
41 0.013433068197644
42 -0.004477502557996
43 0.0
44 -0.005045157580822
45 0.037678323000377
46 0.013433070275491
47 0.004477502495408
48 0.0
49 -0.005045157718050
50 0.18543939693227
51 0.025706722954716
52 0.018568474638966
53 0.0
54 0.012458265044267
 Sym=      8.1
 Ene=      -0.6829
 Spin= Alpha
 Occup=    2.000000
1 0.061646825386047
2 -0.11774456211959
3 -0.090181335871455
4 -0.000000000664803
5 0.0
6 0.19160720095165
7 -0.000000001007693
8 0.0
9 0.053626632041061
10 -0.011787115213284
11 0.001862383071396
12 0.009924732141889
13 0.0
14 -0.000000000017683
15 0.0
16 0.052086567925644
17 0.32939415617189
18 0.52689905038031
19 0.12635745306952
20 0.000000000090978
21 0.0
22 -0.034518510607639
23 -0.000000000265346
24 0.0
25 0.052117153590009
26 0.000000000766730
27 0.0
28 0.028096490000781
29 0.020120334802355
30 -0.026669931878153
31 0.006549597075797
32 0.0
33 -0.000000000307823
34 0.0
35 -0.13612615306947
36 -0.036293104830977
37 0.011558867634359
38 0.0
39 -0.001769370845197
40 0.20967817114486
41 0.079533861829390
42 -0.016142549856360
43 0.0
44 -0.009856970218930
45 0.20967817168280
46 0.079533863089824
47 0.016142549772626
48 0.0
49 -0.009856970325860
50 -0.13612615280152
51 -0.036293105624610
52 -0.011558867676993
53 0.0
54 -0.001769370914798
 Sym=      9.1
 Ene=      -0.5776
 Spin= Alpha
 Occup=    2.000000
1 0.000000000085554
2 -0.000000000384837
3 0.000000001066152
4 0.39906188807217
5 0.0
6 -0.000000000363518
7 0.18515605337585
8 0.0
9 0.000000001813675
10 -0.000000000147568
11 0.000000000018263
12 0.000000000129305
13 0.0
14 -0.012341315039895
15 0.0
16 0.000000000043395
17 0.000000000296663
18 0.000000000933022
19 -0.000000003666263
20 -0.074382477830444
21 0.0
22 -0.000000000507470
23 0.12274452406736
24 0.0
25 0.000000001050724
26 0.084636385286853
27 0.0
28 0.000000001744284
29 0.000000000734963
30 0.000000000022942
31 -0.000000000757905
32 0.0
33 -0.011221128839403
34 0.0
35 0.29089403050574
36 0.089710336924461
37 -0.010658984279374
38 0.0
39 0.014194559147954
40 0.10169472558689
41 0.036592443733264
42 -0.006669470397824
43 0.0
44 -0.003514917057972
45 -0.10169472466484
46 -0.036592441584295
47 -0.006669470394604
48 0.0
49 0.003514917161301
50 -0.29089403003120
51 -0.089710334888813
52 -0.010658984064028
53 0.0
54 -0.014194559125874
 Sym=     10.1
 Ene=      -0.5045
 Spin= Alpha
 Occup=    2.000000
1 -0.029615680570310
2 0.063199069378890
3 0.087177174593522
4 -0.000000004371510
5 0.0
6 0.39711199570736
7 -0.000000005591721
8 0.0
9 0.19760477790295
10 -0.013841031976963
11 0.001806613474105
12 0.012034418502858
13 0.0
14 0.000000000315431
15 0.0
16 0.004707776227122
17 0.030519431822568
18 0.053008389720757
19 -0.048853441385878
20 -0.000000005191172
21 0.0
22 0.17085878902129
23 0.000000008984444
24 0.0
25 -0.30826475952603
26 0.000000009362310
27 0.0
28 -0.14796671886000
29 -0.067486060939213
30 -0.001240298247241
31 0.068726359186455
32 0.0
33 0.000000002609722
34 0.0
35 -0.16138910119470
36 -0.078396362138343
37 0.011030009175905
38 0.0
39 0.001860747690847
40 -0.17033911286558
41 -0.091216992980666
42 0.008485569197164
43 0.0
44 -0.000360738029012
45 -0.17033913382772
46 -0.091217000709937
47 -0.008485569961326
48 0.0
49 -0.000360737498371
50 -0.16138909544625
51 -0.078396361888192
52 -0.011030009025883
53 0.0
54 0.001860747813909
 Sym=     11.1
 Ene=      -0.4925
 Spin= Alpha
 Occup=    2.000000
1 0.000000001036130
2 -0.000000001290903
3 -0.000000008310012
4 -0.15192129812787
5 0.0
6 -0.000000012986120
7 -0.083593712073145
8 0.0
9 -0.000000007591854
10 0.000000000408449
11 0.000000000035664
12 -0.000000000444113
13 0.0
14 0.013788739524965
15 0.0
16 -0.000000000148137
17 -0.000000000966513
18 -0.000000001828504
19 0.000000004980628
20 -0.15145358142736
21 0.0
22 -0.000000005439855
23 0.27231329747600
24 0.0
25 0.000000009708750
26 0.17966871823142
27 0.0
28 0.000000003191391
29 0.000000002148433
30 -0.000000000060370
31 -0.000000002088063
32 0.0
33 0.095804887810619
34 0.0
35 -0.12463039407132
36 -0.064822232502912
37 0.003444785628232
38 0.0
39 -0.006043300326901
40 0.30956895839700
41 0.18289547637222
42 -0.009635883197532
43 0.0
44 -0.009380819820154
45 -0.30956894674031
46 -0.18289547121606
47 -0.009635882535518
48 0.0
49 0.009380819928380
50 0.12463040464094
51 0.064822239519017
52 0.003444786377134
53 0.0
54 0.006043300274683
 Sym=      4.1
 Ene=      -4.2575
 Spin= Alpha
 Occup=    2.000000
1 0.0
2 0.0
3 0.0
4 0.0
5 -0.000062392624290
6 0.0
7 0.0
8 0.000499592039957
9 0.0
10 0.0
11 0.0
12 0.0
13 -0.000000000013744
14 0.0
15 -0.000209317622099
16 0.0
17 0.0
18 0.0
19 0.0
20 0.0
21 0.98797030062124
22 0.0
23 0.0
24 0.037776717481939
25 0.0
26 0.0
27 -0.006389601794721
28 0.0
29 0.0
30 0.0
31 0.0
32 0.000000000011124
33 0.0
34 0.000109362319957
35 0.0
36 0.0
37 0.0
38 0.000040755763483
39 0.0
40 0.0
41 0.0
42 0.0
43 -0.000238531762039
44 0.0
45 0.0
46 0.0
47 0.0
48 -0.000238531760297
49 0.0
50 0.0
51 0.0
52 0.0
53 0.000040755756691
54 0.0
 Sym=     12.1
 Ene=      -0.2198
 Spin= Alpha
 Occup=    1.326177
1 0.0
2 0.0
3 0.0
4 0.0
5 0.49093768145781
6 0.0
7 0.0
8 0.50387056007344
9 0.0
10 0.0
11 0.0
12 0.0
13 -0.000000000174936
14 0.0
15 0.017806214418321
16 0.0
17 0.0
18 0.0
19 0.0
20 0.0
21 -0.085149138693188
22 0.0
23 0.0
24 0.14940994937105
25 0.0
26 0.0
27 0.10802674893442
28 0.0
29 0.0
30 0.0
31 0.0
32 0.000000000666158
33 0.0
34 -0.093800972488892
35 0.0
36 0.0
37 0.0
38 0.015023425374868
39 0.0
40 0.0
41 0.0
42 0.0
43 0.002917537746742
44 0.0
45 0.0
46 0.0
47 0.0
48 0.002917537828357
49 0.0
50 0.0
51 0.0
52 0.0
53 0.015023425318371
54 0.0
 Sym=     13.1
 Ene=      -0.0034
 Spin= Alpha
 Occup=    0.673823
1 0.0
2 0.0
3 0.0
4 0.0
5 -0.19482898430735
6 0.0
7 0.0
8 -0.41565894691912
9 0.0
10 0.0
11 0.0
12 0.0
13 -0.000000000114994
14 0.0
15 0.009254256386916
16 0.0
17 0.0
18 0.0
19 0.0
20 0.0
21 -0.19167275759255
22 0.0
23 0.0
24 0.35319915083462
25 0.0
26 0.0
27 0.81947756789672
28 0.0
29 0.0
30 0.0
31 0.0
32 -0.000000000702193
33 0.0
34 0.076425921438519
35 0.0
36 0.0
37 0.0
38 -0.007252773555427
39 0.0
40 0.0
41 0.0
42 0.0
43 0.016040837914313
44 0.0
45 0.0
46 0.0
47 0.0
48 0.016040837969971
49 0.0
50 0.0
51 0.0
52 0.0
53 -0.007252773557830
54 0.0
 Sym=     14.1
 Ene=       0.1697
 Spin= Alpha
 Occup=    0.000000
1 -0.11308511701385
2 0.13183302380191
3 2.14630891970332
4 0.000000001000081
5 0.0
6 0.089167089492547
7 -0.000000000710263
8 0.0
9 0.37981870857629
10 0.000853526531566
11 -0.009601088647984
12 0.008747562116418
13 0.0
14 0.000000000558022
15 0.0
16 -0.017336495960197
17 -0.11569488978842
18 0.083685569212977
19 -2.56118389130584
20 -0.000000001308920
21 0.0
22 -0.001182126075143
23 0.000000000882782
24 0.0
25 -0.007160793382448
26 0.000000016911606
27 0.0
28 0.65457413454448
29 0.019332150205525
30 -0.092966868634118
31 0.073634718428593
32 0.0
33 -0.000000002413581
34 0.0
35 -0.009161075841681
36 -0.56736903034432
37 -0.003218651111552
38 0.0
39 -0.000228974479705
40 0.11980763499715
41 0.78050818450141
42 -0.004785670537011
43 0.0
44 0.002606717364927
45 0.11980763837543
46 0.78050820618640
47 0.004785670419275
48 0.0
49 0.002606717719505
50 -0.009161072021293
51 -0.56736901894588
52 0.003218651246089
53 0.0
54 -0.000228974776582
 Sym=     15.1
 Ene=       0.1802
 Spin= Alpha
 Occup=    0.000000
1 -0.038412620291958
2 -0.019330385151255
3 1.65067845560752
4 -0.000000000552315
5 0.0
6 -0.063378248378529
7 -0.000000010693184
8 0.0
9 0.000432038433295
10 -0.003495244340230
11 -0.004883251069687
12 0.008378495409917
13 0.0
14 0.000000000314556
15 0.0
16 0.022911309069041
17 0.15695243222400
18 0.29681437884234
19 0.94180707390505
20 -0.000000000607858
21 0.0
22 -0.073774350910582
23 -0.000000000318302
24 0.0
25 0.099320685202738
26 0.000000016593848
27 0.0
28 1.59433849957272
29 -0.094204271492288
30 0.079929541961390
31 0.014274729530898
32 0.0
33 -0.000000001591767
34 0.0
35 -0.003168259935594
36 -0.57724585032205
37 -0.001104018449191
38 0.0
39 -0.008209608737311
40 -0.11298774276197
41 -1.19959861511879
42 -0.006904387849154
43 0.0
44 0.011782605531376
45 -0.11298774062069
46 -1.19959859936374
47 0.006904387780557
48 0.0
49 0.011782605934753
50 -0.003168260072068
51 -0.57724586458947
52 0.001104018226580
53 0.0
54 -0.008209609091812
 Sym=     16.1
 Ene=       0.2145
 Spin= Alpha
 Occup=    0.000000
1 -0.000000001699598
2 0.000000000777476
3 0.000000046674106
4 -0.072859831335383
5 0.0
6 -0.000000002039126
7 -0.34152891345227
8 0.0
9 -0.000000012504054
10 0.000000000905551
11 -0.000000000405840
12 -0.000000000499711
13 0.0
14 -0.035241516836961
15 0.0
16 0.000000000005721
17 0.000000000093387
18 0.000000004468381
19 -0.000000018424932
20 0.12207324995655
21 0.0
22 -0.000000000053661
23 -0.19959376165388
24 0.0
25 0.000000000012558
26 -1.57677731448972
27 0.0
28 0.000000000503664
29 -0.000000001027336
30 -0.000000000511096
31 0.000000001538432
32 0.0
33 0.12238604960335
34 0.0
35 0.14084324190832
36 0.74415190715227
37 -0.004614026732761
38 0.0
39 -0.008135202752609
40 0.090942994711514
41 1.20621098852792
42 -0.005839919876148
43 0.0
44 0.010233608139087
45 -0.090942992994509
46 -1.20621097316128
47 -0.005839919447430
48 0.0
49 -0.010233608099780
50 -0.14084324340358
51 -0.74415196276926
52 -0.004614027285404
53 0.0
54 0.008135202626474
 Sym=     17.1
 Ene=       0.2674
 Spin= Alpha
 Occup=    0.000000
1 0.046141366746010
2 -0.081244487950017
3 -0.83499880132046
4 0.000000020217325
5 0.0
6 0.24293806645073
7 0.000000115084382
8 0.0
9 1.31626011076952
10 -0.005627894211936
11 -0.002444067910299
12 0.008071962122234
13 0.0
14 -0.000000001777193
15 0.0
16 0.006229717080124
17 0.045619168996398
18 0.30428820618271
19 -1.34587973208090
20 0.000000002732592
21 0.0
22 -0.016718441197925
23 -0.000000000155841
24 0.0
25 0.010053634924191
26 -0.000000129807582
27 0.0
28 1.33730286859803
29 -0.021935924402795
30 -0.049835690729444
31 0.071771615132239
32 0.0
33 0.000000004211760
34 0.0
35 0.002252520926022
36 1.58620106712447
37 -0.010745292308433
38 0.0
39 -0.000477278799647
40 -0.014636000444159
41 -0.14397099714718
42 -0.006320848748179
43 0.0
44 0.007511735833271
45 -0.014636010244241
46 -0.14397116497012
47 0.006320847876790
48 0.0
49 0.007511735321056
50 0.002252509424793
51 1.58620131604723
52 0.010745293790969
53 0.0
54 -0.000477275545212
 Sym=     18.1
 Ene=       0.2732
 Spin= Alpha
 Occup=    0.000000
1 0.000000003824458
2 -0.000000006191084
3 -0.000000080860444
4 -0.27343917252956
5 0.0
6 0.000000021052273
7 -1.53160678814470
8 0.0
9 0.000000096917829
10 -0.000000000285485
11 -0.000000000151016
12 0.000000000436501
13 0.0
14 0.020565993033283
15 0.0
16 -0.000000000225220
17 -0.000000001583570
18 0.000000002785471
19 -0.000000082580520
20 -0.017946240316721
21 0.0
22 -0.000000000739577
23 -0.026679869368299
24 0.0
25 -0.000000000713811
26 1.41593295278993
27 0.0
28 0.000000093133815
29 -0.000000003524751
30 -0.000000003842164
31 0.000000007366914
32 0.0
33 -0.027620643177923
34 0.0
35 -0.057322078511106
36 1.70353510541321
37 -0.008613890613265
38 0.0
39 0.016729781611730
40 -0.044851498005436
41 -0.89682486908373
42 0.005297704797584
43 0.0
44 -0.001618100399166
45 0.044851495990125
46 0.89682485538172
47 0.005297705408059
48 0.0
49 0.001618101765654
50 0.057322079019604
51 -1.70353485491033
52 -0.008613889641602
53 0.0
54 -0.016729781544634
 Sym=     19.1
 Ene=       0.3021
 Spin= Alpha
 Occup=    0.000000
1 0.032569086718474
2 -0.075948875537216
3 -0.17041178088676
4 -0.000000002775219
5 0.0
6 -0.11785625145005
7 -0.000000013846188
8 0.0
9 -0.24093815707032
10 -0.005411793437111
11 -0.015414560151104
12 0.020826353588215
13 0.0
14 0.000000000348731
15 0.0
16 0.056261963444047
17 0.41031694951573
18 1.88321868702918
19 -1.78355512097439
20 -0.000000000400384
21 0.0
22 -0.036273906319557
23 0.000000000366857
24 0.0
25 0.17529249868750